 Gaussian 09, Revision C.01,
 Gaussian 09:  EM64L-G09RevC.01 23-Sep-2011

 ----------------------
 #p gfinput HF/6-311+G*
 ----------------------

 (Enter /usr/local/share/ajzapps/g09/l101.exe)
 ---
 H2O
 ---
 Charge =  0 Multiplicity = 1

                         Standard orientation:
 ---------------------------------------------------------------------
 Center     Atomic      Atomic             Coordinates (Angstroms)
 Number     Number       Type             X           Y           Z
 ---------------------------------------------------------------------
      1          8           0        0.000000    0.000000    0.115097
      2          1           0       -0.000000    0.743248   -0.460387
      3          1           0       -0.000000   -0.743248   -0.460387
 ---------------------------------------------------------------------

 SCF Done:  E(RHF) =  -76.0373724877     A.U. after   11 cycles

 The electronic state is 1-A1.
 Alpha  occ. eigenvalues --  -20.56357  -1.36831  -0.73356  -0.58644  -0.51065
 Alpha virt. eigenvalues --    0.14371   0.21286   0.24375   0.24590   0.26698
 Alpha virt. eigenvalues --    0.30450   0.67494   0.69701   1.21161   1.23534
 Alpha virt. eigenvalues --    1.24347   1.59404   2.40430   2.46793   3.11706

 Mulliken atomic charges:
              1
     1  O   -0.775401
     2  H    0.387700
     3  H    0.387700
 Sum of Mulliken atomic charges =   0.00000

 Dipole moment (field-independent basis, Debye):
    X=             -0.0000    Y=              0.0000    Z=             -2.4440  Tot=              2.4440
 Quadrupole moment (field-independent basis, Debye-Ang):
   XX=             -7.6110   YY=             -4.2710   ZZ=             -6.3231
   XY=              0.0000   XZ=              0.0000   YZ=             -0.0000

 Normal termination of Gaussian 09 at Fri Dec 15 16:26:17 2017.
