 Gaussian 09, Revision C.01,
 Gaussian 09:  EM64L-G09RevC.01 23-Sep-2011

 ----------------------
 #p gfinput HF/6-311+G*
 ----------------------

 (Enter /usr/local/share/ajzapps/g09/l101.exe)
 ---
 H2S
 ---
 Charge =  0 Multiplicity = 1

                         Standard orientation:
 ---------------------------------------------------------------------
 Center     Atomic      Atomic             Coordinates (Angstroms)
 Number     Number       Type             X           Y           Z
 ---------------------------------------------------------------------
      1         16           0        0.000000    0.000000    0.063943
      2          1           0       -0.000000    0.743248   -0.511542
      3          1           0       -0.000000   -0.743248   -0.511542
 ---------------------------------------------------------------------

 SCF Done:  E(RHF) =  -398.343163054     A.U. after   10 cycles

 The electronic state is 1-A1.
 Alpha  occ. eigenvalues --  -91.89613  -8.94104  -6.62769  -6.62132  -6.61267
 Alpha  occ. eigenvalues --   -1.13193  -0.75989  -0.49845  -0.39048
 Alpha virt. eigenvalues --    0.06635   0.08449   0.09905   0.10166   0.21025
 Alpha virt. eigenvalues --    0.27730   0.37257   0.38399   0.44662   0.52937
 Alpha virt. eigenvalues --    0.57438   0.95816   0.98023   0.99090   1.00878

 Mulliken atomic charges:
              1
     1  S   -0.358370
     2  H    0.179185
     3  H    0.179185
 Sum of Mulliken atomic charges =  -0.00000

 Dipole moment (field-independent basis, Debye):
    X=             -0.0000    Y=              0.0000    Z=             -1.6095  Tot=              1.6095
 Quadrupole moment (field-independent basis, Debye-Ang):
   XX=            -16.0357   YY=            -11.7458   ZZ=            -13.8693
   XY=              0.0000   XZ=             -0.0000   YZ=              0.0000

 Normal termination of Gaussian 09 at Fri Dec 15 16:28:01 2017.
